
<configuration xmlns:xsi="http://www.w3.org/2001/XMLSchema-instance" xsi:noNamespaceSchemaLocation="http://sumo.dlr.de/xsd/sumoConfiguration.xsd">
    <input>
        <net-file value="map2.net.xml"/>
        <route-files value="car.route.xml, pedestrian.rou.xml"/>
       

        
    </input>

    <output>
       <netstate-dump value="summary-original.xml"/>
       
    </output>

    <time>
        <begin value="0"/>
        <end value="1000"/>

    </time>
</configuration>