<?xml version="1.0" encoding="UTF-8"?>

<!-- generated on 2022-08-01 20:18:51 by Eclipse SUMO GUI Version 1.13.0
<configuration xmlns:xsi="http://www.w3.org/2001/XMLSchema-instance" xsi:noNamespaceSchemaLocation="http://sumo.dlr.de/xsd/sumoConfiguration.xsd">

    <input>
        <net-file value="map2.net.xml"/>
        <route-files value="car.route.xml,pedestrian.rou.xml"/>
        <additional-files value="detector.xml"/>
    </input>

    <output>
        <netstate-dump value="summary-original.xml"/>
        <tripinfo-output value="tripinfo.xml"/>
    </output>

    <time>
        <begin value="0"/>
        <end value="1000"/>
        <step-length value="0.1"/>
    </time>

    <traci_server>
        <remote-port value="1"/>
    </traci_server>

    <gui_only>
        <gui-settings-file value="view.xml"/>
        <tracker-interval value="0.1"/>
    </gui_only>

</configuration>
-->

<tripinfos xmlns:xsi="http://www.w3.org/2001/XMLSchema-instance" xsi:noNamespaceSchemaLocation="http://sumo.dlr.de/xsd/tripinfo_file.xsd">
</tripinfos>
