<?xml version="1.0" encoding="UTF-8"?>

<!-- generated on 2022-07-12 09:53:27 by Eclipse SUMO GUI Version 1.13.0
<configuration xmlns:xsi="http://www.w3.org/2001/XMLSchema-instance" xsi:noNamespaceSchemaLocation="http://sumo.dlr.de/xsd/sumoConfiguration.xsd">

    <input>
        <net-file value="map2.net.xml"/>
        <route-files value="car.route.xml,pedestrian.rou.xml"/>
        <additional-files value="detector.xml"/>
    </input>

    <output>
        <netstate-dump value="summary-original.xml"/>
        <tripinfo-output value="tripinfo.xml"/>
    </output>

    <time>
        <begin value="0"/>
        <end value="1000"/>
    </time>

    <traci_server>
        <remote-port value="1"/>
    </traci_server>

    <gui_only>
        <gui-settings-file value="view.xml"/>
    </gui_only>

</configuration>
-->

<tripinfos xmlns:xsi="http://www.w3.org/2001/XMLSchema-instance" xsi:noNamespaceSchemaLocation="http://sumo.dlr.de/xsd/tripinfo_file.xsd">
    <tripinfo id="t_0" depart="10.00" departLane="322361922#0_1" departPos="5.10" departSpeed="0.00" departDelay="10.00" arrival="32.00" arrivalLane="-299800403_1" arrivalPos="37.75" arrivalSpeed="13.39" duration="22.00" routeLength="110.34" waitingTime="0.00" waitingCount="0" stopTime="0.00" timeLoss="12.88" rerouteNo="0" devices="tripinfo_t_0 routing_t_0" vType="DEFAULT_VEHTYPE" speedFactor="0.86" vaporized=""/>
    <tripinfo id="1" depart="5.00" departLane="322361922#0_1" departPos="5.10" departSpeed="0.00" departDelay="5.00" arrival="33.00" arrivalLane="320948884#0_1" arrivalPos="33.67" arrivalSpeed="3.93" duration="28.00" routeLength="97.67" waitingTime="0.00" waitingCount="0" stopTime="0.00" timeLoss="3.58" rerouteNo="0" devices="tripinfo_1" vType="Car" speedFactor="0.94" vaporized=""/>
    <tripinfo id="0" depart="0.00" departLane="322361922#0_1" departPos="5.10" departSpeed="0.00" departDelay="0.00" arrival="36.00" arrivalLane="322361922#1_1" arrivalPos="53.72" arrivalSpeed="3.95" duration="36.00" routeLength="126.29" waitingTime="0.00" waitingCount="0" stopTime="0.00" timeLoss="4.33" rerouteNo="0" devices="tripinfo_0" vType="Car" speedFactor="1.06" vaporized=""/>
    <tripinfo id="t_4" depart="13.00" departLane="322361922#0_1" departPos="5.10" departSpeed="0.00" departDelay="13.00" arrival="38.00" arrivalLane="322361922#1_1" arrivalPos="53.72" arrivalSpeed="9.23" duration="25.00" routeLength="126.29" waitingTime="0.00" waitingCount="0" stopTime="0.00" timeLoss="14.59" rerouteNo="0" devices="tripinfo_t_4 routing_t_4" vType="DEFAULT_VEHTYPE" speedFactor="1.12" vaporized=""/>
    <tripinfo id="2" depart="0.00" departLane="-322361922#1_1" departPos="5.10" departSpeed="0.00" departDelay="0.00" arrival="46.00" arrivalLane="320948884#0_1" arrivalPos="33.67" arrivalSpeed="3.77" duration="46.00" routeLength="101.31" waitingTime="13.00" waitingCount="1" stopTime="0.00" timeLoss="20.03" rerouteNo="0" devices="tripinfo_2" vType="Car" speedFactor="1.01" vaporized=""/>
    <tripinfo id="3" depart="5.00" departLane="-322361922#1_1" departPos="5.10" departSpeed="0.00" departDelay="5.00" arrival="56.00" arrivalLane="-322361922#0_1" arrivalPos="58.58" arrivalSpeed="3.92" duration="51.00" routeLength="126.52" waitingTime="10.00" waitingCount="1" stopTime="0.00" timeLoss="18.50" rerouteNo="0" devices="tripinfo_3" vType="Car" speedFactor="1.08" vaporized=""/>
    <tripinfo id="t_3" depart="5.00" departLane="-320948884#0_1" departPos="5.10" departSpeed="0.00" departDelay="5.00" arrival="57.00" arrivalLane="-299800403_1" arrivalPos="37.75" arrivalSpeed="14.30" duration="52.00" routeLength="85.66" waitingTime="31.00" waitingCount="1" stopTime="0.00" timeLoss="48.86" rerouteNo="0" devices="tripinfo_t_3 routing_t_3" vType="DEFAULT_VEHTYPE" speedFactor="1.05" vaporized=""/>
    <tripinfo id="5" depart="0.00" departLane="299800403_1" departPos="5.10" departSpeed="0.00" departDelay="0.00" arrival="62.00" arrivalLane="320948884#0_1" arrivalPos="33.67" arrivalSpeed="3.94" duration="62.00" routeLength="86.19" waitingTime="31.00" waitingCount="1" stopTime="0.00" timeLoss="39.57" rerouteNo="0" devices="tripinfo_5" vType="Car" speedFactor="0.83" vaporized=""/>
    <tripinfo id="t_5" depart="9.00" departLane="-320948884#0_1" departPos="5.10" departSpeed="0.00" departDelay="9.00" arrival="63.00" arrivalLane="-322361922#0_1" arrivalPos="58.58" arrivalSpeed="10.17" duration="54.00" routeLength="104.65" waitingTime="30.00" waitingCount="1" stopTime="0.00" timeLoss="44.83" rerouteNo="0" devices="tripinfo_t_5 routing_t_5" vType="DEFAULT_VEHTYPE" speedFactor="0.99" vaporized=""/>
    <tripinfo id="6" depart="0.00" departLane="-320948884#0_1" departPos="5.10" departSpeed="0.00" departDelay="0.00" arrival="65.00" arrivalLane="322361922#1_1" arrivalPos="53.72" arrivalSpeed="3.67" duration="65.00" routeLength="97.17" waitingTime="33.00" waitingCount="1" stopTime="0.00" timeLoss="40.55" rerouteNo="0" devices="tripinfo_6" vType="Car" speedFactor="1.05" vaporized=""/>
    <tripinfo id="7" depart="5.00" departLane="299800403_1" departPos="5.10" departSpeed="0.00" departDelay="5.00" arrival="101.00" arrivalLane="-322361922#0_1" arrivalPos="58.58" arrivalSpeed="3.86" duration="96.00" routeLength="107.01" waitingTime="57.00" waitingCount="2" stopTime="0.00" timeLoss="68.38" rerouteNo="0" devices="tripinfo_7" vType="Car" speedFactor="0.89" vaporized=""/>
    <tripinfo id="t_2" depart="15.00" departLane="-322361922#1_1" departPos="5.10" departSpeed="0.00" departDelay="15.00" arrival="103.00" arrivalLane="320948884#0_1" arrivalPos="33.67" arrivalSpeed="12.77" duration="88.00" routeLength="101.31" waitingTime="56.00" waitingCount="2" stopTime="0.00" timeLoss="80.75" rerouteNo="0" devices="tripinfo_t_2 routing_t_2" vType="DEFAULT_VEHTYPE" speedFactor="1.03" vaporized=""/>
    <tripinfo id="4" depart="10.00" departLane="-322361922#1_1" departPos="5.10" departSpeed="0.00" departDelay="10.00" arrival="105.00" arrivalLane="-299800403_1" arrivalPos="37.75" arrivalSpeed="4.00" duration="95.00" routeLength="96.66" waitingTime="59.00" waitingCount="2" stopTime="0.00" timeLoss="70.34" rerouteNo="0" devices="tripinfo_4" vType="Car" speedFactor="1.03" vaporized=""/>
    <tripinfo id="t_1" depart="10.00" departLane="299800403_1" departPos="5.10" departSpeed="0.00" departDelay="10.00" arrival="179.00" arrivalLane="-322361922#0_1" arrivalPos="58.58" arrivalSpeed="11.07" duration="169.00" routeLength="107.01" waitingTime="139.00" waitingCount="3" stopTime="0.00" timeLoss="160.80" rerouteNo="0" devices="tripinfo_t_1 routing_t_1" vType="DEFAULT_VEHTYPE" speedFactor="1.09" vaporized=""/>
