<?xml version="1.0" encoding="UTF-8"?>

<!-- generated on 2022-07-24 20:33:30 by Eclipse SUMO GUI Version 1.13.0
<configuration xmlns:xsi="http://www.w3.org/2001/XMLSchema-instance" xsi:noNamespaceSchemaLocation="http://sumo.dlr.de/xsd/sumoConfiguration.xsd">

    <input>
        <net-file value="map2.net.xml"/>
        <route-files value="car.route.xml,pedestrian.rou.xml"/>
        <additional-files value="detector.xml"/>
    </input>

    <output>
        <netstate-dump value="summary-original.xml"/>
        <tripinfo-output value="tripinfo.xml"/>
    </output>

    <time>
        <begin value="0"/>
        <end value="1000"/>
        <step-length value="0.1"/>
    </time>

    <traci_server>
        <remote-port value="1"/>
    </traci_server>

    <gui_only>
        <gui-settings-file value="view.xml"/>
        <tracker-interval value="0.1"/>
    </gui_only>

</configuration>
-->

<tripinfos xmlns:xsi="http://www.w3.org/2001/XMLSchema-instance" xsi:noNamespaceSchemaLocation="http://sumo.dlr.de/xsd/tripinfo_file.xsd">
    <tripinfo id="t_0" depart="9.60" departLane="322361922#0_1" departPos="5.10" departSpeed="0.00" departDelay="9.60" arrival="30.40" arrivalLane="-299800403_1" arrivalPos="37.75" arrivalSpeed="14.22" duration="20.80" routeLength="110.34" waitingTime="0.00" waitingCount="0" stopTime="0.00" timeLoss="11.68" rerouteNo="0" devices="tripinfo_t_0 routing_t_0" vType="DEFAULT_VEHTYPE" speedFactor="0.86" vaporized=""/>
    <tripinfo id="1" depart="4.80" departLane="322361922#0_1" departPos="5.10" departSpeed="0.00" departDelay="4.80" arrival="32.50" arrivalLane="320948884#0_1" arrivalPos="33.67" arrivalSpeed="3.97" duration="27.70" routeLength="97.67" waitingTime="0.10" waitingCount="1" stopTime="0.00" timeLoss="3.22" rerouteNo="0" devices="tripinfo_1" vType="Car" speedFactor="0.94" vaporized=""/>
    <tripinfo id="0" depart="0.00" departLane="322361922#0_1" departPos="5.10" departSpeed="0.00" departDelay="0.00" arrival="34.80" arrivalLane="322361922#1_1" arrivalPos="53.72" arrivalSpeed="3.96" duration="34.80" routeLength="126.29" waitingTime="0.10" waitingCount="1" stopTime="0.00" timeLoss="3.25" rerouteNo="0" devices="tripinfo_0" vType="Car" speedFactor="1.06" vaporized=""/>
    <tripinfo id="t_4" depart="12.60" departLane="322361922#0_1" departPos="5.10" departSpeed="0.00" departDelay="12.60" arrival="36.80" arrivalLane="322361922#1_1" arrivalPos="53.72" arrivalSpeed="8.33" duration="24.20" routeLength="126.29" waitingTime="0.00" waitingCount="0" stopTime="0.00" timeLoss="14.10" rerouteNo="0" devices="tripinfo_t_4 routing_t_4" vType="DEFAULT_VEHTYPE" speedFactor="1.12" vaporized=""/>
    <tripinfo id="2" depart="0.00" departLane="-322361922#1_1" departPos="5.10" departSpeed="0.00" departDelay="0.00" arrival="42.90" arrivalLane="320948884#0_1" arrivalPos="33.67" arrivalSpeed="3.97" duration="42.90" routeLength="101.31" waitingTime="11.00" waitingCount="2" stopTime="0.00" timeLoss="17.59" rerouteNo="0" devices="tripinfo_2" vType="Car" speedFactor="1.01" vaporized=""/>
    <tripinfo id="t_2" depart="14.60" departLane="-322361922#1_1" departPos="5.10" departSpeed="0.00" departDelay="14.60" arrival="44.90" arrivalLane="320948884#0_1" arrivalPos="33.67" arrivalSpeed="11.51" duration="30.30" routeLength="101.31" waitingTime="1.80" waitingCount="1" stopTime="0.00" timeLoss="23.17" rerouteNo="0" devices="tripinfo_t_2 routing_t_2" vType="DEFAULT_VEHTYPE" speedFactor="1.03" vaporized=""/>
    <tripinfo id="4" depart="9.80" departLane="-322361922#1_1" departPos="5.10" departSpeed="0.00" departDelay="9.80" arrival="47.50" arrivalLane="-299800403_1" arrivalPos="37.75" arrivalSpeed="3.98" duration="37.70" routeLength="96.66" waitingTime="3.30" waitingCount="2" stopTime="0.00" timeLoss="13.49" rerouteNo="0" devices="tripinfo_4" vType="Car" speedFactor="1.03" vaporized=""/>
    <tripinfo id="3" depart="4.90" departLane="-322361922#1_1" departPos="5.10" departSpeed="0.00" departDelay="4.90" arrival="52.20" arrivalLane="-322361922#0_1" arrivalPos="58.58" arrivalSpeed="4.00" duration="47.30" routeLength="126.52" waitingTime="5.90" waitingCount="2" stopTime="0.00" timeLoss="15.66" rerouteNo="0" devices="tripinfo_3" vType="Car" speedFactor="1.08" vaporized=""/>
    <tripinfo id="t_3" depart="4.80" departLane="-320948884#0_1" departPos="5.10" departSpeed="0.00" departDelay="4.80" arrival="57.80" arrivalLane="-299800403_1" arrivalPos="37.75" arrivalSpeed="15.43" duration="53.00" routeLength="85.66" waitingTime="31.70" waitingCount="1" stopTime="0.00" timeLoss="50.02" rerouteNo="0" devices="tripinfo_t_3 routing_t_3" vType="DEFAULT_VEHTYPE" speedFactor="1.05" vaporized=""/>
    <tripinfo id="5" depart="0.00" departLane="299800403_1" departPos="5.10" departSpeed="0.00" departDelay="0.00" arrival="61.80" arrivalLane="320948884#0_1" arrivalPos="33.67" arrivalSpeed="3.98" duration="61.80" routeLength="86.19" waitingTime="33.60" waitingCount="2" stopTime="0.00" timeLoss="40.25" rerouteNo="0" devices="tripinfo_5" vType="Car" speedFactor="0.83" vaporized=""/>
    <tripinfo id="t_5" depart="7.80" departLane="-320948884#0_1" departPos="5.10" departSpeed="0.00" departDelay="7.80" arrival="61.80" arrivalLane="-322361922#0_1" arrivalPos="58.58" arrivalSpeed="11.00" duration="54.00" routeLength="104.65" waitingTime="30.30" waitingCount="1" stopTime="0.00" timeLoss="45.24" rerouteNo="0" devices="tripinfo_t_5 routing_t_5" vType="DEFAULT_VEHTYPE" speedFactor="0.99" vaporized=""/>
    <tripinfo id="6" depart="0.00" departLane="-320948884#0_1" departPos="5.10" departSpeed="0.00" departDelay="0.00" arrival="65.80" arrivalLane="322361922#1_1" arrivalPos="53.72" arrivalSpeed="3.99" duration="65.80" routeLength="97.17" waitingTime="34.80" waitingCount="2" stopTime="0.00" timeLoss="41.44" rerouteNo="0" devices="tripinfo_6" vType="Car" speedFactor="1.05" vaporized=""/>
    <tripinfo id="7" depart="4.90" departLane="299800403_1" departPos="5.10" departSpeed="0.00" departDelay="4.90" arrival="101.00" arrivalLane="-322361922#0_1" arrivalPos="58.58" arrivalSpeed="3.97" duration="96.10" routeLength="107.01" waitingTime="56.80" waitingCount="3" stopTime="0.00" timeLoss="69.31" rerouteNo="0" devices="tripinfo_7" vType="Car" speedFactor="0.89" vaporized=""/>
    <tripinfo id="t_1" depart="9.80" departLane="299800403_1" departPos="5.10" departSpeed="0.00" departDelay="9.80" arrival="178.10" arrivalLane="-322361922#0_1" arrivalPos="58.58" arrivalSpeed="12.10" duration="168.30" routeLength="107.01" waitingTime="136.80" waitingCount="3" stopTime="0.00" timeLoss="160.97" rerouteNo="0" devices="tripinfo_t_1 routing_t_1" vType="DEFAULT_VEHTYPE" speedFactor="1.09" vaporized=""/>
</tripinfos>
